# vtk DataFile Version 2.0
tmp, Created by Gmsh 4.9.4 
ASCII
DATASET UNSTRUCTURED_GRID
POINTS 655 double
0 0 0
10 0 0
10 1 0
0 1 0
0.1470588235294115 0 0
0.294117647058823 0 0
0.4411764705882346 0 0
0.5882352941176461 0 0
0.7352941176470577 0 0
0.8823529411764692 0 0
1.029411764705881 0 0
1.176470588235292 0 0
1.323529411764704 0 0
1.470588235294115 0 0
1.617647058823526 0 0
1.764705882352938 0 0
1.911764705882349 0 0
2.058823529411761 0 0
2.205882352941172 0 0
2.352941176470583 0 0
2.499999999999996 0 0
2.647058823529407 0 0
2.794117647058819 0 0
2.941176470588231 0 0
3.088235294117643 0 0
3.235294117647054 0 0
3.382352941176466 0 0
3.529411764705878 0 0
3.67647058823529 0 0
3.823529411764702 0 0
3.970588235294113 0 0
4.117647058823525 0 0
4.264705882352938 0 0
4.41176470588235 0 0
4.558823529411761 0 0
4.705882352941173 0 0
4.852941176470584 0 0
4.999999999999996 0 0
5.147058823529409 0 0
5.294117647058821 0 0
5.441176470588233 0 0
5.588235294117645 0 0
5.735294117647056 0 0
5.882352941176468 0 0
6.02941176470588 0 0
6.176470588235292 0 0
6.323529411764704 0 0
6.470588235294116 0 0
6.617647058823527 0 0
6.764705882352938 0 0
6.91176470588235 0 0
7.058823529411762 0 0
7.205882352941173 0 0
7.352941176470585 0 0
7.499999999999997 0 0
7.647058823529409 0 0
7.794117647058822 0 0
7.941176470588234 0 0
8.088235294117647 0 0
8.235294117647058 0 0
8.382352941176469 0 0
8.52941176470588 0 0
8.676470588235293 0 0
8.823529411764705 0 0
8.970588235294118 0 0
9.117647058823529 0 0
9.264705882352942 0 0
9.411764705882353 0 0
9.558823529411764 0 0
9.705882352941176 0 0
9.852941176470589 0 0
10 0.125 0
10 0.2500000000000001 0
10 0.3750000000000001 0
10 0.5000000000000001 0
10 0.625 0
10 0.75 0
10 0.875 0
9.852941176470589 1 0
9.705882352941178 1 0
9.558823529411766 1 0
9.411764705882353 1 0
9.264705882352942 1 0
9.117647058823531 1 0
8.97058823529412 1 0
8.823529411764708 1 0
8.676470588235297 1 0
8.529411764705884 1 0
8.382352941176475 1 0
8.235294117647062 1 0
8.08823529411765 1 0
7.941176470588239 1 0
7.794117647058828 1 0
7.647058823529417 1 0
7.500000000000004 1 0
7.352941176470592 1 0
7.205882352941181 1 0
7.058823529411769 1 0
6.911764705882357 1 0
6.764705882352946 1 0
6.617647058823534 1 0
6.470588235294122 1 0
6.32352941176471 1 0
6.176470588235299 1 0
6.029411764705887 1 0
5.882352941176475 1 0
5.735294117647062 1 0
5.58823529411765 1 0
5.441176470588239 1 0
5.294117647058827 1 0
5.147058823529416 1 0
5.000000000000004 1 0
4.852941176470591 1 0
4.705882352941179 1 0
4.558823529411767 1 0
4.411764705882355 1 0
4.264705882352944 1 0
4.117647058823532 1 0
3.97058823529412 1 0
3.823529411764708 1 0
3.676470588235296 1 0
3.529411764705884 1 0
3.382352941176473 1 0
3.235294117647062 1 0
3.08823529411765 1 0
2.941176470588238 1 0
2.794117647058827 1 0
2.647058823529415 1 0
2.500000000000003 1 0
2.352941176470591 1 0
2.205882352941178 1 0
2.058823529411766 1 0
1.911764705882353 1 0
1.764705882352942 1 0
1.617647058823531 1 0
1.47058823529412 1 0
1.323529411764707 1 0
1.176470588235295 1 0
1.029411764705882 1 0
0.882352941176471 1 0
0.735294117647058 1 0
0.5882352941176467 1 0
0.4411764705882355 1 0
0.2941176470588243 1 0
0.1470588235294112 1 0
0 0.875 0
0 0.75 0
0 0.6249999999999999 0
0 0.4999999999999999 0
0 0.375 0
0 0.25 0
0 0.125 0
8.446581278862304 0.8710310326661143 0
9.479314958063163 0.8764087627155726 0
8.893162305584337 0.1144020429275605 0
1.10294117647059 0.874233118322708 0
1.540024171941469 0.128016068022682 0
1.983126797003712 0.1357935725677474 0
4.485294117649778 0.1209037697367147 0
5.661764705882472 0.1273566770271625 0
8.005309260800399 0.8778068701074316 0
0.5113507632701744 0.8736127636125683 0
6.691176470588233 0.1252034707839439 0
3.305400058981031 0.8924847943323025 0
2.861137042847588 0.8880861756266825 0
6.267294902319632 0.8773251983959952 0
7.125496557523551 0.1224879874654172 0
4.036493816111393 0.884267601895556 0
5.220588235294121 0.8726433229728772 0
2.425879871772757 0.1270155555666649 0
7.590779294769876 0.8892058058727832 0
4.926470588237941 0.1273566770278269 0
3.750000000061763 0.1194256040339584 0
0.8068247659434569 0.1282504539598293 0
9.887861845811967 0.4238220405462792 0
0.1035346409746349 0.4403522990830722 0
8.301840758050366 0.1232944557464494 0
6.855510056608618 0.8825996456033299 0
1.692299971676759 0.8732921427751252 0
9.062161163675963 0.8947799818559555 0
3.155078051689018 0.1271329979203517 0
9.33235079303665 0.132598792925253 0
6.102941176470603 0.1273566770271279 0
7.867647058823529 0.1273566770271236 0
5.826133654408866 0.8733745918649758 0
4.632352941176474 0.8726433229728764 0
2.124835592940346 0.8835937471363274 0
1.101504787356527 0.1280676185535863 0
7.573529411764704 0.1273566770271236 0
5.220588235294223 0.1223562687950445 0
2.567724118535606 0.8807356145375633 0
6.561402455580611 0.8799613620959988 0
4.338235294117649 0.8726433229728772 0
4.191176470531472 0.1273566769586925 0
3.74524876674173 0.8852436863883567 0
7.296671556339871 0.8865614271794222 0
3.455882352941172 0.1273566770271233 0
2.719188143351454 0.140512809345804 0
6.397058823529409 0.12463917024004 0
8.602941176470587 0.1273566770271228 0
5.514705882352945 0.8726433229728772 0
4.926470588235297 0.8726433229728764 0
1.397058823529413 0.8726433229728772 0
8.767365913029483 0.8784883051799104 0
0.8088235294117627 0.875291241777071 0
0.5123570096470891 0.1270683044639539 0
0.1053277424122321 0.6849626637739848 0
9.894852625611264 0.6920510080779788 0
9.631999131771099 0.1239233710403403 0
0.2279604688418733 0.1297182729549524 0
9.891746824526944 0.1875 0
0.2137256017020714 0.871168434850864 0
9.796229159444692 0.8916402324459611 0
0.3684470992649356 0.1263919037937182 0
0.4384687460325427 0.2506494996585712 0
0.5821627956689079 0.253780792406193 0
0.5073778544793441 0.3758089037081069 0
0.6515255236082282 0.3797199943146777 0
0.5769925611755635 0.5026597239381734 0
0.7212132805546059 0.5044509100526282 0
0.4351495069180897 0.4983232446504419 0
0.7964504604767599 0.3824907497429992 0
0.866605227607641 0.5075804441041669 0
0.9421980546786024 0.3848110687945897 0
1.012666976447273 0.5127723412118633 0
1.088561222508744 0.3877690284594164 0
1.159123307982596 0.5163598626803707 0
1.23521759697603 0.3908488874255017 0
1.305913569381632 0.5195600194743906 0
1.382107841725409 0.3906404745398743 0
1.452804028378868 0.5221660774540997 0
1.529034475598714 0.3930893596038618 0
1.599829132809346 0.5211499601251918 0
1.675941878703942 0.3986820878486663 0
1.74670202955249 0.5289707925462622 0
1.822889328944066 0.4037545180606302 0
1.893794055762064 0.5278635733912345 0
1.96990274792498 0.4064874194576885 0
2.040729780923416 0.5345310761938659 0
2.116922327973045 0.4093600551787046 0
2.187735309201691 0.5381997963660426 0
2.266073099871759 0.4071787560308914 0
2.335109269574731 0.5405252544099581 0
2.415056867263085 0.4030720819806856 0
2.482518295242604 0.5423054174146722 0
2.560339669592941 0.410107064519029 0
2.629316846054274 0.5458515260776067 0
2.705600255254296 0.4149113869576304 0
2.776010204869012 0.5493200125391922 0
2.852276227735705 0.4183666679582905 0
2.922922123612249 0.5525506721947465 0
2.993673665077983 0.4297884213966336 0
3.068990785259143 0.5570693865792673 0
3.14554978217362 0.4143698802764533 0
3.216665417350743 0.5573293702966828 0
3.293113183423119 0.4343635467440898 0
3.363888947979282 0.5627815971600045 0
3.440132388186423 0.4374005240142006 0
3.510946607014665 0.5662730739720828 0
3.587162409217461 0.4405651963292423 0
3.65797843390434 0.5694590373415244 0
3.734028476234905 0.451321054896414 0
3.80497863271587 0.5738592788518481 0
3.881023404880704 0.4559236726099118 0
3.951995038657941 0.5774363589230873 0
4.028055035361146 0.4587724849151351 0
4.099020264033609 0.5805839441111663 0
4.17518243017344 0.4570958999533659 0
4.246008058027423 0.5854952665316487 0
4.322124374907102 0.4641703554026659 0
4.393013568054403 0.5895694989262412 0
4.469145223234261 0.4675204659830522 0
4.540055449328013 0.5919268353746776 0
4.616172898631612 0.4705483096640442 0
4.687084262596652 0.594900968020792 0
4.763211838134503 0.473044473624258 0
4.697236274508507 0.3451575358810647 0
4.834133818947334 0.5968960086921776 0
4.91032817424791 0.4718874589247587 0
4.981188368898893 0.5986553485681947 0
5.057295633393376 0.4777575519671398 0
3.958611190286429 0.3254204250601364 0
5.128217550054202 0.6016121161594492 0
5.204324489026578 0.4807296849056877 0
5.275244443442902 0.6046768688289209 0
5.351351001123509 0.4838124350803584 0
5.422282324582075 0.6072229917349312 0
5.49839108354779 0.4862546557772383 0
5.569312539106301 0.6101309849134565 0
5.64547748287712 0.4865106834859882 0
5.43250262278697 0.352156124785466 0
2.928246484018524 0.2992484857578165 0
5.716360991846392 0.6121781205603617 0
5.792465758193747 0.4913982393339506 0
5.863384333788171 0.6154105050534249 0
5.939496956164269 0.4942598133199442 0
6.010382666222153 0.6198233573686371 0
6.086565290800934 0.4953685084496292 0
5.868762727583447 0.3615462283603536 0
1.964603310125064 0.6535151920671604 0
0.6504289142444701 0.6247821401047514 0
6.157456746103662 0.6206608725847303 0
6.233566055171707 0.4996665715278212 0
6.304486440745428 0.6235934048773196 0
6.380600314952378 0.5023836257967065 0
2.405866288661853 0.6642908835237842 0
2.197298562205621 0.2747828145975774 0
6.451526221704258 0.6260498553413822 0
6.527629875675432 0.5053224791623172 0
6.598554999251053 0.6290256752231549 0
6.674668734495368 0.507822455287276 0
0.9441753851410928 0.6346292217378177 0
1.75538914626987 0.2726170315216394 0
3.140650042512698 0.678599618761763 0
6.7455954416343 0.6314509059564156 0
6.821699171962397 0.510719925673785 0
6.892624475542513 0.6344146253865258 0
6.968738175552499 0.5132130685383364 0
6.877065159414986 0.3849310802489526 0
7.039583437277681 0.6406858046651003 0
7.115755057039881 0.5167503914723329 0
1.237465331108259 0.6428174772039158 0
6.582961813968671 0.3816170918561834 0
3.581930435167081 0.6875665127832807 0
[...]
CELL_DATA 1312
SCALARS CellEntityIds int 1
LOOKUP_TABLE default
-1
-1
-1
-1
2
2
2
2
2
2
2
2
2
2
2
2
2
2
2
2
2
2
2
2
2
2
2
2
2
2
2
2
2
2
2
2
2
2
2
2
2
2
2
2
2
2
2
2
2
2
2
2
2
2
2
2
2
2
2
2
2
2
2
2
2
2
2
2
2
2
2
2
4
4
4
4
4
4
4
4
3
3
3
3
3
3
3
3
3
3
3
3
3
3
3
3
3
3
3
3
3
3
3
3
3
3
3
3
3
3
3
3
3
3
3
3
3
3
3
3
3
3
3
3
3
3
3
3
3
3
3
3
3
3
3
3
3
3
3
3
3
3
3
3
3
3
3
3
1
1
1
1
1
1
1
1
-1
-1
-1
-1
-1
-1
-1
-1
-1
-1
-1
-1
-1
-1
-1
-1
-1
-1
-1
-1
-1
-1
-1
-1
-1
-1
-1
-1
-1
-1
-1
-1
-1
-1
-1
-1
-1
-1
-1
-1
-1
-1
-1
-1
-1
-1
-1
-1
-1
-1
-1
-1
-1
-1
-1
-1
-1
-1
-1
-1
-1
-1
-1
-1
-1
-1
-1
-1
-1
-1
-1
-1
-1
-1
-1
-1
-1
-1
-1
-1
-1
-1
-1
-1
-1
-1
-1
-1
-1
-1
-1
-1
-1
-1
-1
-1
-1
-1
-1
-1
-1
-1
-1
-1
-1
-1
-1
-1
-1
-1
-1
-1
-1
-1
-1
-1
-1
-1
-1
-1
-1
-1
-1
-1
-1
-1
-1
-1
-1
-1
-1
-1
-1
-1
-1
-1
-1
-1
-1
-1
-1
-1
-1
-1
-1
-1
-1
-1
-1
-1
-1
-1
-1
-1
-1
-1
-1
-1
-1
-1
-1
-1
-1
-1
-1
-1
-1
-1
-1
-1
-1
-1
-1
-1
-1
-1
-1
-1
-1
-1
-1
-1
-1
-1
-1
-1
-1
-1
-1
-1
-1
-1
-1
-1
-1
-1
-1
-1
-1
-1
-1
-1
-1
-1
-1
-1
-1
-1
-1
-1
-1
-1
-1
-1
-1
-1
-1
-1
-1
-1
-1
-1
-1
-1
-1
-1
-1
-1
-1
-1
-1
-1
-1
-1
-1
-1
-1
-1
-1
-1
-1
-1
-1
-1
-1
-1
-1
-1
-1
-1
-1
-1
-1
-1
-1
-1
-1
-1
-1
-1
-1
-1
-1
-1
-1
-1
-1
-1
-1
-1
-1
-1
-1
-1
-1
-1
-1
-1
-1
-1
-1
-1
-1
-1
-1
-1
-1
-1
-1
-1
-1
-1
-1
-1
-1
-1
-1
-1
-1
-1
-1
-1
-1
-1
-1
-1
-1
-1
-1
-1
-1
-1
-1
-1
-1
-1
-1
-1
-1
-1
-1
-1
-1
-1
-1
-1
-1
-1
-1
-1
-1
-1
-1
-1
-1
-1
-1
-1
-1
-1
-1
-1
-1
-1
-1
-1
-1
-1
-1
-1
-1
-1
-1
-1
-1
-1
-1
-1
-1
-1
-1
-1
-1
-1
-1
-1
-1
-1
-1
-1
-1
-1
-1
-1
-1
-1
-1
-1
-1
-1
-1
-1
-1
-1
-1
-1
-1
-1
-1
-1
-1
-1
-1
-1
-1
-1
-1
-1
-1
-1
-1
-1
-1
-1
-1
-1
-1
-1
-1
-1
-1
-1
-1
-1
-1
-1
-1
-1
-1
-1
-1
-1
-1
-1
-1
-1
-1
-1
-1
-1
-1
-1
-1
-1
-1
-1
-1
-1
-1
-1
-1
-1
-1
-1
-1
-1
-1
-1
-1
-1
-1
-1
-1
-1
-1
-1
-1
-1
-1
-1
-1
-1
-1
-1
-1
-1
-1
-1
-1
-1
-1
-1
-1
-1
-1
-1
-1
-1
-1
-1
-1
-1
-1
-1
-1
-1
-1
-1
-1
-1
-1
-1
-1
-1
-1
-1
-1
-1
-1
-1
-1
-1
-1
-1
-1
-1
-1
-1
-1
-1
-1
-1
-1
-1
-1
-1
-1
-1
-1
-1
-1
-1
-1
-1
-1
-1
-1
-1
-1
-1
-1
-1
-1
-1
-1
-1
-1
-1
-1
-1
-1
-1
-1
-1
-1
-1
-1
-1
-1
-1
-1
-1
-1
-1
-1
-1
-1
-1
-1
-1
-1
-1
-1
-1
-1
-1
-1
-1
-1
-1
-1
-1
-1
-1
-1
-1
-1
-1
-1
-1
-1
-1
-1
-1
-1
-1
-1
-1
-1
-1
-1
-1
-1
-1
-1
-1
-1
-1
-1
-1
-1
-1
-1
-1
-1
-1
-1
-1
-1
-1
-1
-1
-1
-1
-1
-1
-1
-1
-1
-1
-1
-1
-1
-1
-1
-1
-1
-1
-1
-1
-1
-1
-1
-1
-1
-1
-1
-1
-1
-1
-1
-1
-1
-1
-1
-1
-1
-1
-1
-1
-1
-1
-1
-1
-1
-1
-1
-1
-1
-1
-1
-1
-1
-1
-1
-1
-1
-1
-1
-1
-1
-1
-1
-1
-1
-1
-1
-1
-1
-1
-1
-1
-1
-1
-1
-1
-1
-1
-1
-1
-1
-1
-1
-1
-1
-1
-1
-1
-1
-1
-1
-1
-1
-1
-1
-1
-1
-1
-1
-1
-1
-1
-1
-1
-1
-1
-1
-1
-1
-1
-1
-1
-1
-1
-1
-1
-1
-1
-1
-1
-1
-1
-1
-1
-1
-1
-1
-1
-1
-1
-1
-1
-1
-1
-1
-1
-1
-1
-1
-1
-1
-1
-1
-1
-1
-1
-1
-1
-1
-1
-1
-1
-1
-1
-1
-1
-1
-1
-1
-1
-1
-1
-1
-1
-1
-1
-1
-1
-1
-1
-1
-1
-1
-1
-1
-1
-1
-1
-1
-1
-1
-1
-1
-1
-1
-1
-1
-1
-1
-1
-1
-1
-1
-1
-1
-1
-1
-1
-1
-1
-1
-1
-1
-1
-1
-1
-1
-1
-1
-1
-1
-1
-1
-1
-1
-1
-1
-1
-1
-1
-1
-1
-1
-1
-1
-1
-1
-1
-1
-1
-1
-1
-1
-1
-1
-1
-1
-1
-1
-1
-1
-1
-1
-1
-1
-1
-1
-1
-1
-1
-1
-1
-1
-1
-1
-1
-1
-1
-1
-1
-1
-1
-1
-1
-1
-1
-1
-1
-1
-1
-1
-1
-1
-1
-1
-1
-1
-1
-1
-1
-1
-1
-1
-1
-1
-1
-1
-1
-1
-1
-1
-1
-1
-1
-1
-1
-1
-1
-1
-1
-1
-1
-1
-1
-1
-1
-1
-1
-1
-1
-1
-1
-1
-1
-1
-1
-1
-1
-1
-1
-1
-1
-1
-1
-1
-1
-1
-1
-1
-1
-1
-1
-1
-1
-1
-1
-1
-1
-1
-1
-1
-1
-1
-1
-1
-1
-1
-1
-1
-1
-1
-1
-1
-1
-1
-1
-1
-1
-1
-1
-1
-1
-1
-1
-1
-1
-1
-1
-1
-1
-1
-1
-1
-1
-1
-1
-1
-1
-1
-1
-1
-1
-1
-1
-1
-1
-1
-1
-1
-1
-1
-1
-1
-1
-1
-1
-1
-1
-1
-1
-1
-1
-1
-1
-1
-1
-1
-1
-1
-1
-1
-1
-1
-1
-1
-1
-1
-1
-1
-1
-1
-1
-1
-1
-1
-1
-1
-1
-1
-1
-1
-1
-1
-1
-1
-1
-1
-1
-1
-1
-1
-1
-1
-1
-1
-1
-1
-1
-1
-1
-1
-1
-1
-1
-1
-1
-1
-1
-1
-1
-1
-1
-1
-1
-1
-1
-1
-1
-1
-1
-1
-1
-1
-1
-1
-1
-1
-1
-1
-1
-1
-1
-1
-1
-1
-1
-1
-1
-1
-1
-1
-1
-1
-1
-1
-1
-1
-1
-1
-1
-1
-1
-1
-1
-1
-1
-1
-1
-1
-1
-1
-1
-1
-1
-1
-1
-1
-1
-1
-1
-1
-1
-1
-1
-1
-1
-1
-1
-1
-1
-1
-1
-1
-1
-1
-1
-1
-1
-1
-1
-1
-1
-1
-1
-1
-1
