# vtk DataFile Version 3.0
Grid2D
ASCII
DATASET UNSTRUCTURED_GRID
POINTS 5 double
0.000000 0.000000 0
1.000000 0.000000 0
2.000000 0.000000 0
2.000000 1.000000 0
1.000000 1.000000 0
CELLS 2 9
3 0 1 4 
4 1 2 3 4 
CELL_TYPES  2
7
7
CELL_DATA 2
SCALARS data double 1
LOOKUP_TABLE default
1
2
